 TITLE = "f:\20200825Ma7jiaozheng\num1\Test0120200827122054.dat"
  VARIABLES = "t(s)","PV(Pa)","PS(atm)","PI(atm)","TH(K)","TB(K)","PH(atm)","PB(atm)"
 ZONE I=           4000, DATAPACKING=POINT
 AUXDATA	ChNumber="8"
 AUXDATA	SaveFreqinHz="100"
 AUXDATA	StartTimeinSec="3807519654.015"
         0.0000       557.2271        60.1064        19.0633       581.9971       349.0860         0.0911        -0.2327
         0.0100       565.9004        60.2472        19.0875       581.7331       349.0199         0.0809        -0.2338
         0.0200       564.1722        60.2220        19.0531       581.5375       349.2412         0.0872        -0.2138
         0.0300       560.5785        60.1725        19.0743       581.8316       348.7600         0.0789        -0.2324
         0.0400       564.7669        60.2097        19.0736       581.4770       348.7149         0.0835        -0.2190
         0.0500       562.4092        60.1751        19.0416       581.9185       349.5475         0.0800        -0.2179
         0.0600       561.9855        60.2933        19.0758       581.9022       348.9922         0.0669        -0.2267
         0.0700       561.2946        60.2294        19.0723       581.3869       348.9894         0.0971        -0.2087
         0.0800       561.0164        60.1839        19.0859       581.8432       349.4333         0.0892        -0.2214
         0.0900       565.3141        60.2931        19.0763       581.7298       349.0341         0.0729        -0.2204
         0.1000       562.3958        60.1492        19.0279       581.5499       349.1593         0.0854        -0.2134
         0.1100       561.4927        60.1882        19.0864       581.6398       349.0824         0.0725        -0.2244
         0.1200       562.4910        60.2364        19.0751       581.5214       348.7198         0.0814        -0.2241
