 TITLE = "f:\20200825Ma7jiaozheng\num1\Test0120200827122054.dat"
  VARIABLES = "t(s)","PV(Pa)","PS(atm)","PI(atm)","TH(K)","TB(K)","PH(atm)","PB(atm)"
 ZONE I=           4000, DATAPACKING=POINT
 AUXDATA	ChNumber="8"
 AUXDATA	SaveFreqinHz="100"
 AUXDATA	StartTimeinSec="3807519654.015"
         0.0000       557.2271        60.1064        19.0633       581.9971       349.0860         0.0911        -0.2327
         0.0100       565.9004        60.2472        19.0875       581.7331       349.0199         0.0809        -0.2338
         0.0200       564.1722        60.2220        19.0531       581.5375       349.2412         0.0872        -0.2138
         0.0300       560.5785        60.1725        19.0743       581.8316       348.7600         0.0789        -0.2324
         0.0400       564.7669        60.2097        19.0736       581.4770       348.7149         0.0835        -0.2190
         0.0500       562.4092        60.1751        19.0416       581.9185       349.5475         0.0800        -0.2179
         0.0600       561.9855        60.2933        19.0758       581.9022       348.9922         0.0669        -0.2267
         0.0700       561.2946        60.2294        19.0723       581.3869       348.9894         0.0971        -0.2087
         0.0800       561.0164        60.1839        19.0859       581.8432       349.4333         0.0892        -0.2214
         0.0900       565.3141        60.2931        19.0763       581.7298       349.0341         0.0729        -0.2204
         0.1000       562.3958        60.1492        19.0279       581.5499       349.1593         0.0854        -0.2134
         0.1100       561.4927        60.1882        19.0864       581.6398       349.0824         0.0725        -0.2244
         0.1200       562.4910        60.2364        19.0751       581.5214       348.7198         0.0814        -0.2241
         0.1300       560.1763        60.1734        19.0572       581.8240       349.1169         0.0933        -0.2200
         0.1400       562.6123        60.2324        19.0879       581.7555       349.0493         0.0688        -0.2168
         0.1500       560.8474        60.1591        19.0520       581.6942       349.0225         0.0828        -0.2118
         0.1600       560.0988        60.1786        19.0842       581.8089       349.1243         0.0940        -0.2195
         0.1700       563.8947        60.2531        19.0935       581.5721       348.6136         0.0823        -0.2178
         0.1800       562.4020        60.1917        19.0433       581.9395       348.9829         0.0834        -0.2067
         0.1900       562.6725        60.2586        19.0668       582.1278       349.4716         0.0778        -0.2182
         0.2000       562.4112        60.2346        19.0616       581.5378       349.3071         0.0828        -0.2149
         0.2100       562.1814        60.1585        19.0536       581.7155       349.3271         0.0863        -0.2011
         0.2200       563.5587        60.2769        19.0733       581.7961       348.9235         0.0783        -0.2169
         0.2300       560.3509        60.2504        19.0547       581.2692       349.1422         0.0914        -0.2170
         0.2400       560.6674        60.1568        19.0710       581.6905       349.2974         0.0898        -0.2212
         0.2500       564.6235        60.2004        19.0773       582.1702       348.8769         0.0774        -0.2235
         0.2600       561.1584        60.1516        19.0547       581.6116       349.0659         0.0890        -0.2174
         0.2700       561.8936        60.1572        19.0774       581.7704       348.9521         0.0805        -0.2291
         0.2800       562.8756        60.1930        19.0642       581.8392       349.0362         0.0739        -0.2136
         0.2900       561.8101        60.1623        19.0428       581.5759       349.3638         0.0979        -0.2187
         0.3000       563.9589        60.2142        19.0714       581.9473       348.9429         0.0816        -0.2346
         0.3100       562.3542        60.2146        19.0746       581.9301       349.0217         0.0777        -0.2025
         0.3200       562.5865        60.2745        19.0856       582.1366       349.1421         0.0984        -0.2172
         0.3300       563.9936        60.3085        19.0871       581.7218       348.9683         0.0805        -0.2290
         0.3400       560.8613        60.1485        19.0494       581.2228       349.2837         0.0831        -0.2097
         0.3500       562.3393        60.1915        19.0680       582.1130       349.3263         0.0884        -0.2261
         0.3600       563.5342        60.1929        19.0625       581.8173       348.9513         0.0762        -0.2241
         0.3700       561.6939        60.1669        19.0558       581.7585       349.0980         0.0748        -0.2187
         0.3800       565.0830        60.2534        19.0802       582.0400       349.0705         0.0746        -0.2236
         0.3900       562.4921        60.1482        19.0571       581.3848       348.9593         0.0989        -0.1991
         0.4000       560.7873        60.1449        19.0505       581.6251       349.0551         0.0878        -0.2141
         0.4100       568.4552        60.2594        19.0645       581.8482       348.8620         0.0723        -0.2234
         0.4200       561.9026        60.1842        19.0589       581.6289       348.9184         0.0994        -0.2083
         0.4300       559.7752        60.1947        19.0620       581.9550       349.0007         0.0816        -0.2293
         0.4400       562.6926        60.2219        19.0598       581.8667       348.9100         0.0639        -0.2151
         0.4500       560.4732        60.1736        19.0716       581.7932       349.1941         0.0964        -0.2010
         0.4600       565.5796        60.2599        19.0748       581.9283       349.1035         0.0884        -0.2295
         0.4700       559.5355        60.1653        19.0373       581.5192       349.0214         0.0814        -0.2127
         0.4800       557.3334        60.0908        19.0560       581.7711       349.1827         0.0946        -0.2173
         0.4900       565.8783        60.2217        19.0845       581.8329       348.9479         0.0827        -0.2274
         0.5000       561.4303        60.1483        19.0464       581.3212       349.1173         0.0864        -0.2059
         0.5100       561.9171        60.1699        19.0617       581.8165       349.0684         0.0751        -0.2138
         0.5200       563.9004        60.2491        19.0769       581.8159       348.7333         0.0815        -0.2110
         0.5300       562.1089        60.1687        19.0515       581.6325       349.3422         0.1048        -0.2100
         0.5400       564.7567        60.1401        19.0620       582.0831       349.2864         0.0715        -0.2255
         0.5500       559.6802        60.1900        19.0573       581.7515       349.0616         0.0898        -0.2100
         0.5600       560.5206        60.1874        19.0592       581.8379       349.2209         0.0959        -0.2203
         0.5700       566.0149        60.2003        19.0555       582.0015       348.8697         0.0779        -0.2255
         0.5800       560.4036        60.2036        19.0345       581.8070       349.1223         0.0949        -0.2063
         0.5900       563.6863        60.2142        19.0752       581.9482       349.3914         0.0773        -0.2215
         0.6000       563.2330        60.2561        19.0650       581.4651       348.9621         0.0846        -0.2154
         0.6100       561.7835        60.2187        19.0532       581.6948       349.1756         0.0938        -0.2073
         0.6200       565.3020        60.2593        19.0776       582.0222       349.0106         0.0754        -0.2201
         0.6300       558.6347        60.2430        19.0657       581.4886       348.8581         0.0895        -0.2090
         0.6400       560.6549        60.2097        19.0854       581.9324       349.2274         0.0877        -0.2219
         0.6500       566.5468        60.2792        19.0779       581.8517       348.9739         0.0812        -0.2264
         0.6600       561.2333        60.1744        19.0544       581.5022       349.2745         0.0921        -0.2072
         0.6700       562.5903        60.1757        19.0857       582.2013       349.3761         0.0838        -0.2278
         0.6800       563.0478        60.2238        19.0625       581.9159       348.8433         0.0814        -0.2262
         0.6900       561.9489        60.1992        19.0592       581.5968       349.2382         0.0944        -0.2183
         0.7000       567.8560        60.2660        19.0794       581.8680       349.0766         0.0811        -0.2301
         0.7100       565.2784        60.1478        19.0624       581.8365       348.7637         0.0810        -0.2064
         0.7200       559.5992        60.1558        19.0602       581.8593       349.0540         0.0898        -0.2153
         0.7300       563.4701        60.2737        19.0458       581.7173       348.8757         0.0770        -0.2254
         0.7400       563.0222        60.1588        19.0510       581.4794       348.8712         0.0848        -0.2127
         0.7500       563.3929        60.2123        19.0941       581.9626       348.9564         0.0866        -0.2283
         0.7600       565.7896        60.2457        19.0744       581.9028       348.9134         0.0787        -0.2260
         0.7700       559.3730        60.1940        19.0484       581.5560       349.2112         0.0969        -0.2205
         0.7800       563.5421        60.2126        19.0672       581.9812       349.0580         0.0816        -0.2357
         0.7900       564.6760        60.2263        19.0659       581.6867       349.0129         0.0809        -0.2151
         0.8000       558.2426        60.2963        19.0708       581.6105       349.0286         0.0967        -0.2110
         0.8100       565.2735        60.1906        19.0714       581.7816       348.8523         0.0806        -0.2118
         0.8200       561.9184        60.1152        19.0527       581.3561       349.2472         0.0861        -0.1947
         0.8300       560.9286        60.2623        19.0686       581.6150       349.2494         0.0815        -0.2094
         0.8400       564.5394        60.1974        19.0706       581.6099       348.8092         0.0736        -0.2065
         0.8500       559.8803        60.1694        19.0741       581.7465       349.0470         0.0990        -0.2109
         0.8600       564.6871        60.2567        19.0684       582.0642       349.2036         0.0823        -0.2350
         0.8700       564.7269        60.2036        19.0473       581.5691       349.0991         0.0809        -0.1992
         0.8800       558.7385        60.2265        19.0638       581.6468       349.0666         0.0960        -0.2105
         0.8900       562.8577        60.2518        19.0672       581.6440       349.0087         0.0797        -0.2255
         0.9000       562.0714        60.1757        19.0528       581.7668       349.0141         0.0906        -0.1905
         0.9100       561.1817        60.2165        19.0632       582.2019       349.0990         0.0894        -0.2151
         0.9200       563.7162        60.2322        19.0699       581.4475       348.9039         0.0837        -0.2234
         0.9300       562.3081        60.1802        19.0730       581.6604       349.0196         0.0981        -0.2198
         0.9400       566.1622        60.1882        19.0715       581.8315       349.1497         0.0745        -0.2288
         0.9500       563.4912        60.1738        19.0440       581.4018       348.9146         0.0845        -0.2130
         0.9600       558.2638        60.2004        19.0486       581.7416       349.1525         0.0981        -0.2239
         0.9700       565.2171        60.2460        19.0914       581.6968       349.2291         0.0792        -0.2152
         0.9800       562.4275        60.1887        19.0611       581.7627       349.0962         0.0905        -0.2020
         0.9900       560.5908        60.2584        19.0544       581.9652       349.3731         0.0785        -0.2264
         1.0000       563.7692        60.2413        19.0723       581.5394       348.9812         0.0744        -0.2190
         1.0100       561.1566        60.1106        19.0592       581.6975       348.8777         0.0989        -0.1908
         1.0200       566.8911        60.2117        19.0786       581.9619       349.1999         0.0800        -0.2233
         1.0300       568.5479        60.2197        19.0666       581.7946       349.0048         0.0821        -0.2151
         1.0400       563.4380        60.1571        19.0615       581.9235       349.1850         0.0949        -0.2003
         1.0500       563.8486        60.2759        19.0785       581.8149       349.0407         0.0836        -0.2232
         1.0600       559.8512        60.1734        19.0542       581.7476       348.8847         0.0967        -0.2085
         1.0700       560.0041        60.1599        19.0675       582.1151       348.9540         0.0876        -0.2204
         1.0800       564.6518        60.2417        19.0695       581.7908       348.7451         0.0727        -0.2175
         1.0900       565.1608        60.1103        19.0585       581.9837       349.3342         0.0949        -0.2058
         1.1000       564.6623        60.2064        19.0714       582.1227       349.1119         0.0862        -0.2279
         1.1100       560.8711        60.2386        19.0708       581.5558       348.7526         0.0896        -0.1984
         1.1200       562.3777        60.1314        19.0942       581.8281       349.1346         0.0974        -0.2009
         1.1300       564.3410        60.2385        19.0996       581.7888       348.8013         0.0813        -0.2211
         1.1400       561.0499        60.2311        19.0516       581.5641       349.0663         0.0904        -0.1998
         1.1500       564.1824        60.2191        19.0641       581.7226       349.3006         0.0782        -0.2125
         1.1600       563.1236        60.1999        19.0819       581.3983       348.8126         0.0645        -0.2234
         1.1700       559.4142        60.1561        19.0688       581.7591       349.2410         0.0879        -0.2031
         1.1800       561.0100        60.2997        19.0728       581.9841       349.1520         0.0841        -0.2110
         1.1900       561.6775        60.2113        19.0688       581.4920       349.0241         0.0817        -0.2128
         1.2000       560.8252        60.0899        19.0613       581.6312       349.2102         0.0855        -0.2042
         1.2100       562.8273        60.1873        19.0617       581.7744       348.9026         0.0790        -0.2209
         1.2200       563.8418        60.1480        19.0688       581.5475       349.0794         0.0900        -0.2191
         1.2300       563.8970        60.1704        19.0779       581.8803       348.6828         0.0915        -0.2103
         1.2400       561.7734        60.2103        19.0664       581.6186       348.5321         0.0853        -0.2137
         1.2500       559.7050        60.1890        19.0622       581.5397       349.3348         0.0913        -0.2217
         1.2600       564.7934        60.2307        19.0718       582.1663       349.0208         0.0774        -0.2353
         1.2700       560.7508        60.2098        19.0620       581.8173       348.9374         0.0823        -0.2090
         1.2800       559.1703        60.1868        19.0628       581.6080       349.1933         0.0925        -0.2056
         1.2900       570.0099        60.1947        19.0784       581.7219       349.1136         0.0784        -0.2236
         1.3000       560.1970        60.1812        19.0646       581.5013       349.1173         0.0900        -0.2142
         1.3100       561.6073        60.1793        19.0698       581.7611       349.0786         0.0843        -0.2283
         1.3200       564.0995        60.2140        19.0641       581.6665       349.1632         0.0763        -0.2282
         1.3300       553.7328        60.2368        19.0489       581.7883       349.0829         0.0990        -0.2063
         1.3400       565.5982        60.2288        19.0666       581.8883       349.0473         0.0831        -0.2178
         1.3500       567.3409        60.1884        19.0740       581.3869       349.2519         0.0780        -0.2065
         1.3600       558.3016        60.1317        19.0724       581.6415       349.2022         0.0878        -0.2218
         1.3700       562.1454        60.2356        19.0732       582.0590       349.0586         0.0786        -0.2462
         1.3800       561.1711        60.1934        19.0547       581.9175       349.0566         0.0883        -0.2212
         1.3900       562.0445        60.1724        19.0657       582.0333       348.9572         0.0759        -0.2229
         1.4000       560.7547        60.2497        19.0727       581.6115       349.0266         0.0714        -0.2228
         1.4100       562.4452        60.1623        19.0482       581.5031       349.2605         0.1010        -0.2219
         1.4200       572.7464        60.2255        19.0734       581.8368       349.0056         0.0866        -0.2406
         1.4300       564.1777        60.2383        19.0751       581.5352       349.0569         0.0850        -0.2189
         1.4400       558.4700        60.1934        19.0551       581.7418       349.1233         0.0931        -0.2157
         1.4500       567.6826        60.2960        19.0707       581.9759       348.9861         0.0794        -0.2201
         1.4600       560.0662        60.1857        19.0621       581.6362       349.1364         0.0844        -0.1945
         1.4700       560.9112        60.2108        19.0785       581.6861       349.1549         0.0581        -0.2174
         1.4800       562.5218        60.2766        19.0702       581.6124       349.0422         0.0560        -0.2250
         1.4900       557.0954        60.1570        19.0589       581.7374       349.1950         0.1029        -0.2080
         1.5000       562.7320        60.2371        19.0872       581.8616       349.2438         0.0752        -0.2347
         1.5100       561.6219        60.1678        19.0561       581.6411       349.0499         0.0717        -0.2157
         1.5200       563.8040        60.1209        19.0593       581.7616       349.2858         0.0959        -0.2081
         1.5300       564.9259        60.3043        19.0790       581.4828       349.2957         0.0776        -0.2305
         1.5400       560.1059        60.1656        19.0455       581.7140       349.0957         0.0851        -0.2062
         1.5500       563.7101        60.1596        19.0722       582.3000       349.3383         0.0851        -0.2128
         1.5600       563.8852        60.2877        19.0767       581.3531       349.0631         0.0787        -0.2225
         1.5700       564.1532        60.2116        19.0518       581.6329       349.0934         0.0928        -0.2085
         1.5800       564.7679        60.2002        19.0768       582.0650       349.1817         0.0840        -0.2219
         1.5900       558.2458        60.2278        19.0649       581.5123       348.8624         0.0790        -0.2174
         1.6000       556.2372        60.1986        19.0613       581.8691       349.1907         0.0881        -0.2164
         1.6100       566.7662        60.2019        19.0747       581.7324       349.1286         0.0888        -0.2142
         1.6200       563.0218        60.1320        19.0430       581.5607       349.2422         0.0887        -0.2046
         1.6300       563.0565        60.1967        19.0705       581.9353       349.5318         0.0818        -0.2316
         1.6400       567.6343        60.2434        19.0692       581.6905       348.8822         0.0718        -0.2188
         1.6500       563.9307        60.1624        19.0503       581.7091       349.2278         0.0858        -0.1950
         1.6600       567.9720        60.2874        19.0902       581.9302       349.2657         0.0849        -0.2170
         1.6700       564.7750        60.2307        19.0709       581.7785       348.9924         0.0751        -0.2113
         1.6800       558.8736        60.1227        19.0665       582.0695       349.1649         0.0880        -0.2125
         1.6900       563.4430        60.2313        19.0832       582.0875       348.8578         0.0864        -0.2251
         1.7000       560.1163        60.1632        19.0459       581.6255       349.0548         0.0831        -0.2181
         1.7100       560.2075        60.1916        19.0719       581.9913       349.1933         0.0815        -0.2322
         1.7200       563.5977        60.2716        19.0878       581.8282       349.0267         0.0777        -0.2341
         1.7300       557.2750        60.1953        19.0478       581.7391       349.1617         0.1030        -0.2166
         1.7400       561.4811        60.1794        19.0622       582.0330       349.0807         0.0890        -0.2326
         1.7500       569.2547        60.1880        19.0531       581.7970       349.0445         0.0792        -0.2119
         1.7600       563.6536        60.2802        19.0485       582.0945       349.1353         0.0998        -0.2103
         1.7700       562.8958        60.3162        19.0781       581.7022       348.9364         0.0769        -0.2365
         1.7800       562.6064        60.1692        19.0613       581.1429       349.0297         0.0728        -0.2132
         1.7900       563.2093        60.2065        19.0775       582.1821       349.3066         0.0805        -0.2185
         1.8000       563.2538        60.2238        19.0718       581.9066       348.8813         0.0660        -0.2245
         1.8100       559.2756        60.1661        19.0585       581.6177       348.9758         0.0800        -0.2101
         1.8200       562.6287        60.2281        19.0696       582.0774       348.9599         0.0830        -0.2310
         1.8300       558.9389        60.1702        19.0503       581.6033       348.8364         0.0828        -0.2226
         1.8400       558.1405        60.1242        19.0679       581.6422       349.1744         0.0912        -0.2114
         1.8500       565.5793        60.2444        19.0817       581.1164       349.0468         0.0815        -0.2163
         1.8600       560.1137        60.2077        19.0532       581.0921       349.1532         0.0959        -0.2099
         1.8700       562.5233        60.2060        19.0650       582.2443       349.2152         0.0951        -0.2313
         1.8800       563.8045        60.1928        19.0751       581.7863       348.8382         0.0669        -0.2392
         1.8900       561.0291        60.1492        19.0579       582.1134       349.1178         0.0942        -0.2231
         1.9000       567.3312        60.2281        19.0808       582.0602       349.2709         0.0887        -0.2319
         1.9100       563.8100        60.1306        19.0587       581.5041       349.0119         0.0776        -0.2068
         1.9200       559.0779        60.1132        19.0451       581.7581       348.9801         0.0950        -0.2074
         1.9300       564.6996        60.2587        19.0810       581.2594       348.9717         0.0800        -0.2362
         1.9400       563.6481        60.1865        19.0435       581.5461       349.2176         0.0851        -0.2122
         1.9500       564.8385        60.2170        19.0680       582.1382       349.1542         0.0755        -0.2226
         1.9600       562.9378        60.2844        19.0701       581.6018       348.6682         0.0705        -0.2337
         1.9700       560.3015        60.2179        19.0471       581.7451       349.1462         0.1022        -0.2013
         1.9800       564.2116        60.2651        19.0813       581.8479       349.2311         0.0851        -0.2248
         1.9900       560.4611        60.1761        19.0616       581.4798       349.0836         0.0839        -0.2201
         2.0000       561.7272        60.0723        19.0777       581.9146       349.5055         0.0847        -0.2035
         2.0100       565.8723        60.2442        19.0836       582.0246       349.2061         0.0807        -0.2292
         2.0200       560.5840        60.1926        19.0452       581.4886       348.8780         0.1148        -0.2093
         2.0300       561.0956        60.2011        19.0739       581.8279       349.0373         0.0971        -0.2160
         2.0400       563.3708        60.2324        19.0729       581.9779       348.7976         0.0700        -0.2358
         2.0500       559.4893        60.1453        19.0479       581.6784       348.9453         0.0978        -0.2024
         2.0600       562.3568        60.2455        19.0657       581.7147       349.0250         0.0899        -0.2188
         2.0700       564.2035        60.2234        19.0721       581.6818       348.8211         0.0774        -0.2303
         2.0800       558.8150        60.1636        19.0875       581.9044       348.9722         0.0913        -0.2143
         2.0900       563.6334        60.2150        19.0950       581.9590       348.8894         0.0802        -0.2226
         2.1000       563.0037        60.1609        19.0535       581.5474       349.5092         0.0761        -0.1917
         2.1100       560.7067        60.1755        19.0704       581.8042       349.7378         0.0820        -0.2160
         2.1200       564.0917        60.2243        19.0680       581.7677       348.8384         0.0717        -0.2476
         2.1300       560.7943        60.2152        19.0555       581.6005       349.2949         0.0938        -0.1883
         2.1400       563.5238        60.3007        19.0807       582.0509       349.1232         0.0923        -0.2195
         2.1500       565.1218        60.2907        19.0644       581.7337       348.8038         0.0818        -0.2238
         2.1600       560.5768        60.1290        19.0812       581.6998       349.2739         0.0974        -0.2035
         2.1700       563.7757        60.2280        19.0955       581.9274       349.1215         0.0786        -0.2361
         2.1800       562.0658        60.2028        19.0554       581.5790       349.0546         0.0810        -0.2009
         2.1900       560.8839        60.1494        19.0597       582.1343       348.8980         0.0941        -0.2082
         2.2000       565.8523        60.2241        19.0617       581.7974       348.9181         0.0782        -0.2394
         2.2100       561.8527        60.1805        19.0478       581.6885       349.1746         0.0897        -0.2418
         2.2200       561.3070        60.2008        19.0575       582.0708       348.9563         0.0805        -0.2398
         2.2300       563.0104        60.2378        19.0463       581.2612       348.9700         0.0810        -0.2003
         2.2400       559.2213        60.2391        19.0537       581.8426       348.9955         0.1066        -0.2200
         2.2500       564.2094        60.2081        19.0756       582.2678       348.7379         0.0829        -0.2358
         2.2600       562.8555        60.1874        19.0449       581.5383       348.8833         0.0670        -0.2101
         2.2700       562.1627        60.1901        19.0676       582.0393       349.2280         0.0781        -0.2275
         2.2800       570.3740        60.1865        19.0604       581.9423       348.9141         0.0690        -0.2391
         2.2900       564.3315        60.1966        19.0239       581.6514       348.9295         0.0827        -0.2651
         2.3000       557.3530        60.2230        19.0580       581.9045       348.9543         0.0823        -0.2696
         2.3100       564.7350        60.1892        19.0611       581.6850       348.8815         0.0753        -0.1938
         2.3200       561.8490        60.1179        19.0502       581.6403       349.0766         0.0901        -0.2152
         2.3300       561.3510        60.2541        19.0630       581.5244       348.9778         0.0777        -0.2291
         2.3400       566.0084        60.2153        19.0491       581.6804       348.9419         0.0825        -0.1991
         2.3500       564.3223        60.1740        19.0672       582.3174       348.9767         0.0677        -0.2171
         2.3600       562.9913        60.2720        19.0711       581.7241       348.8970         0.0591        -0.2228
         2.3700       562.6883        60.2276        19.0519       581.8130       349.1338         0.1128        -0.2286
         2.3800       565.4790        60.2323        19.0833       582.0579       349.1550         0.0837        -0.2167
         2.3900       557.5383        60.1617        19.0619       581.4150       348.9847         0.0900        -0.2051
         2.4000       557.8898        60.0687        19.0359       581.8210       349.2898         0.1126        -0.2161
         2.4100       567.9228        60.2159        19.0732       582.0151       349.0124         0.0816        -0.2235
         2.4200       560.9474        60.2348        19.0487       581.4355       348.9983         0.0995        -0.2189
         2.4300       561.1636        60.1717        19.0612       581.7465       349.7209         0.0964        -0.2109
         2.4400       563.5702        60.2065        19.0760       581.9143       349.0219         0.0740        -0.2128